256
Atoms. Timestep: 0
A 0 0 0
A 0.746901 0.746901 0
A 0.746901 0 0.746901
A 0 0.746901 0.746901
A 1.4938 0 0
A 2.2407 0.746901 0
A 2.2407 0 0.746901
A 1.4938 0.746901 0.746901
A 2.9876 0 0
A 3.7345 0.746901 0
A 3.7345 0 0.746901
A 2.9876 0.746901 0.746901
A 4.4814 0 0
A 5.22831 0.746901 0
A 5.22831 0 0.746901
A 4.4814 0.746901 0.746901
A 0 1.4938 0
A 0.746901 2.2407 0
A 0.746901 1.4938 0.746901
A 0 2.2407 0.746901
A 1.4938 1.4938 0
A 2.2407 2.2407 0
A 2.2407 1.4938 0.746901
A 1.4938 2.2407 0.746901
A 2.9876 1.4938 0
A 3.7345 2.2407 0
A 3.7345 1.4938 0.746901
A 2.9876 2.2407 0.746901
A 4.4814 1.4938 0
A 5.22831 2.2407 0
A 5.22831 1.4938 0.746901
A 4.4814 2.2407 0.746901
A 0 0 1.4938
A 0.746901 0.746901 1.4938
A 0.746901 0 2.2407
A 0 0.746901 2.2407
A 1.4938 0 1.4938
A 2.2407 0.746901 1.4938
A 2.2407 0 2.2407
A 1.4938 0.746901 2.2407
A 2.9876 0 1.4938
A 3.7345 0.746901 1.4938
A 3.7345 0 2.2407
A 2.9876 0.746901 2.2407
A 4.4814 0 1.4938
A 5.22831 0.746901 1.4938
A 5.22831 0 2.2407
A 4.4814 0.746901 2.2407
A 0 1.4938 1.4938
A 0.746901 2.2407 1.4938
A 0.746901 1.4938 2.2407
A 0 2.2407 2.2407
A 1.4938 1.4938 1.4938
A 2.2407 2.2407 1.4938
A 2.2407 1.4938 2.2407
A 1.4938 2.2407 2.2407
A 2.9876 1.4938 1.4938
A 3.7345 2.2407 1.4938
A 3.7345 1.4938 2.2407
A 2.9876 2.2407 2.2407
A 4.4814 1.4938 1.4938
A 5.22831 2.2407 1.4938
A 5.22831 1.4938 2.2407
A 4.4814 2.2407 2.2407
A 0 0 2.9876
A 0.746901 0.746901 2.9876
A 0.746901 0 3.7345
A 0 0.746901 3.7345
A 1.4938 0 2.9876
A 2.2407 0.746901 2.9876
A 2.2407 0 3.7345
A 1.4938 0.746901 3.7345
A 2.9876 0 2.9876
A 3.7345 0.746901 2.9876
A 3.7345 0 3.7345
A 2.9876 0.746901 3.7345
A 4.4814 0 2.9876
A 5.22831 0.746901 2.9876
A 5.22831 0 3.7345
A 4.4814 0.746901 3.7345
A 0 1.4938 2.9876
A 0.746901 2.2407 2.9876
A 0.746901 1.4938 3.7345
A 0 2.2407 3.7345
A 1.4938 1.4938 2.9876
A 2.2407 2.2407 2.9876
A 2.2407 1.4938 3.7345
A 1.4938 2.2407 3.7345
A 2.9876 1.4938 2.9876
A 3.7345 2.2407 2.9876
A 3.7345 1.4938 3.7345
A 2.9876 2.2407 3.7345
A 4.4814 1.4938 2.9876
A 5.22831 2.2407 2.9876
A 5.22831 1.4938 3.7345
A 4.4814 2.2407 3.7345
A 0 0 4.4814
A 0.746901 0.746901 4.4814
A 0.746901 0 5.22831
A 0 0.746901 5.22831
A 1.4938 0 4.4814
A 2.2407 0.746901 4.4814
A 2.2407 0 5.22831
A 1.4938 0.746901 5.22831
A 2.9876 0 4.4814
A 3.7345 0.746901 4.4814
A 3.7345 0 5.22831
A 2.9876 0.746901 5.22831
A 4.4814 0 4.4814
A 5.22831 0.746901 4.4814
A 5.22831 0 5.22831
A 4.4814 0.746901 5.22831
A 0 1.4938 4.4814
A 0.746901 2.2407 4.4814
A 0.746901 1.4938 5.22831
A 0 2.2407 5.22831
A 1.4938 1.4938 4.4814
A 2.2407 2.2407 4.4814
A 2.2407 1.4938 5.22831
A 1.4938 2.2407 5.22831
A 2.9876 1.4938 4.4814
A 3.7345 2.2407 4.4814
A 3.7345 1.4938 5.22831
A 2.9876 2.2407 5.22831
A 4.4814 1.4938 4.4814
A 5.22831 2.2407 4.4814
A 5.22831 1.4938 5.22831
A 4.4814 2.2407 5.22831
A 0 2.9876 0
A 0.746901 3.7345 0
A 0.746901 2.9876 0.746901
A 0 3.7345 0.746901
A 1.4938 2.9876 0
A 2.2407 3.7345 0
A 2.2407 2.9876 0.746901
A 1.4938 3.7345 0.746901
A 2.9876 2.9876 0
A 3.7345 3.7345 0
A 3.7345 2.9876 0.746901
A 2.9876 3.7345 0.746901
A 4.4814 2.9876 0
A 5.22831 3.7345 0
A 5.22831 2.9876 0.746901
A 4.4814 3.7345 0.746901
A 0 4.4814 0
A 0.746901 5.22831 0
A 0.746901 4.4814 0.746901
A 0 5.22831 0.746901
A 1.4938 4.4814 0
A 2.2407 5.22831 0
A 2.2407 4.4814 0.746901
A 1.4938 5.22831 0.746901
A 2.9876 4.4814 0
A 3.7345 5.22831 0
A 3.7345 4.4814 0.746901
A 2.9876 5.22831 0.746901
A 4.4814 4.4814 0
A 5.22831 5.22831 0
A 5.22831 4.4814 0.746901
A 4.4814 5.22831 0.746901
A 0 2.9876 1.4938
A 0.746901 3.7345 1.4938
A 0.746901 2.9876 2.2407
A 0 3.7345 2.2407
A 1.4938 2.9876 1.4938
A 2.2407 3.7345 1.4938
A 2.2407 2.9876 2.2407
A 1.4938 3.7345 2.2407
A 2.9876 2.9876 1.4938
A 3.7345 3.7345 1.4938
A 3.7345 2.9876 2.2407
A 2.9876 3.7345 2.2407
A 4.4814 2.9876 1.4938
A 5.22831 3.7345 1.4938
A 5.22831 2.9876 2.2407
A 4.4814 3.7345 2.2407
A 0 4.4814 1.4938
A 0.746901 5.22831 1.4938
A 0.746901 4.4814 2.2407
A 0 5.22831 2.2407
A 1.4938 4.4814 1.4938
A 2.2407 5.22831 1.4938
A 2.2407 4.4814 2.2407
A 1.4938 5.22831 2.2407
A 2.9876 4.4814 1.4938
A 3.7345 5.22831 1.4938
A 3.7345 4.4814 2.2407
A 2.9876 5.22831 2.2407
A 4.4814 4.4814 1.4938
A 5.22831 5.22831 1.4938
A 5.22831 4.4814 2.2407
A 4.4814 5.22831 2.2407
A 0 2.9876 2.9876
A 0.746901 3.7345 2.9876
A 0.746901 2.9876 3.7345
A 0 3.7345 3.7345
A 1.4938 2.9876 2.9876
A 2.2407 3.7345 2.9876
A 2.2407 2.9876 3.7345
A 1.4938 3.7345 3.7345
A 2.9876 2.9876 2.9876
A 3.7345 3.7345 2.9876
A 3.7345 2.9876 3.7345
A 2.9876 3.7345 3.7345
A 4.4814 2.9876 2.9876
A 5.22831 3.7345 2.9876
A 5.22831 2.9876 3.7345
A 4.4814 3.7345 3.7345
A 0 4.4814 2.9876
A 0.746901 5.22831 2.9876
A 0.746901 4.4814 3.7345
A 0 5.22831 3.7345
A 1.4938 4.4814 2.9876
A 2.2407 5.22831 2.9876
A 2.2407 4.4814 3.7345
A 1.4938 5.22831 3.7345
A 2.9876 4.4814 2.9876
A 3.7345 5.22831 2.9876
A 3.7345 4.4814 3.7345
A 2.9876 5.22831 3.7345
A 4.4814 4.4814 2.9876
A 5.22831 5.22831 2.9876
A 5.22831 4.4814 3.7345
A 4.4814 5.22831 3.7345
A 0 2.9876 4.4814
A 0.746901 3.7345 4.4814
A 0.746901 2.9876 5.22831
A 0 3.7345 5.22831
A 1.4938 2.9876 4.4814
A 2.2407 3.7345 4.4814
A 2.2407 2.9876 5.22831
A 1.4938 3.7345 5.22831
A 2.9876 2.9876 4.4814
A 3.7345 3.7345 4.4814
A 3.7345 2.9876 5.22831
A 2.9876 3.7345 5.22831
A 4.4814 2.9876 4.4814
A 5.22831 3.7345 4.4814
A 5.22831 2.9876 5.22831
A 4.4814 3.7345 5.22831
A 0 4.4814 4.4814
A 0.746901 5.22831 4.4814
A 0.746901 4.4814 5.22831
A 0 5.22831 5.22831
A 1.4938 4.4814 4.4814
A 2.2407 5.22831 4.4814
A 2.2407 4.4814 5.22831
A 1.4938 5.22831 5.22831
A 2.9876 4.4814 4.4814
A 3.7345 5.22831 4.4814
A 3.7345 4.4814 5.22831
A 2.9876 5.22831 5.22831
A 4.4814 4.4814 4.4814
A 5.22831 5.22831 4.4814
A 5.22831 4.4814 5.22831
A 4.4814 5.22831 5.22831
256
Atoms. Timestep: 1
A -0.000416503 -0.00277452 -0.00756829
A 0.749914 0.745598 -0.00186859
A 0.745282 -0.00745429 0.745777
A -0.00144812 0.74164 0.751723
A 1.48704 0.00703637 -0.00727436
A 2.23553 0.749643 -0.00181292
A 2.24666 0.00036835 0.751964
A 1.49907 0.740898 0.749125
A 2.99409 -0.00382321 -0.00400666
A 3.73027 0.742752 0.00681286
A 3.73085 -0.00456778 0.75277
A 2.99264 0.745639 0.753105
A 4.48857 0.00415215 -0.00662659
A 5.22092 0.741053 0.00672877
A 5.23583 0.00269513 0.744546
A 4.48609 0.748893 0.746538
A 0.00594291 1.48966 -0.00478185
A 0.742191 2.23374 -0.0059279
A 0.751728 1.49486 0.752124
A -0.000715419 2.24207 0.752081
A 1.4891 1.4879 -0.00475459
A 2.24787 2.24061 -0.00389206
A 2.24814 1.49184 0.747606
A 1.49329 2.24803 0.754178
A 2.98377 1.49607 -0.00012976
A 3.73593 2.24431 0.00698642
A 3.73481 1.49513 0.751127
A 2.9862 2.24635 0.749007
A 4.48345 1.49212 0.000321179
A 5.22233 2.24292 0.00295811
A 5.22807 1.49697 0.753751
A 4.48922 2.23374 0.748206
A 0.00545243 0.00388909 1.49241
A 0.743527 0.739052 1.48994
A 0.739649 -0.0013434 2.24091
A -0.00486088 0.742897 2.2461
A 1.48996 -0.00619072 1.4914
A 2.24838 0.742709 1.48613
A 2.24545 -0.00463378 2.24772
A 1.49455 0.748237 2.23511
A 2.9821 -0.00639028 1.49966
A 3.73496 0.74267 1.49794
A 3.7343 0.00351211 2.24242
A 2.98535 0.745081 2.24026
A 4.47932 -0.00779611 1.50062
A 5.23106 0.750293 1.49968
A 5.23049 0.00185708 2.23465
A 4.48243 0.748088 2.24249
A 0.00201069 1.49006 1.50124
A 0.75288 2.23623 1.48924
A 0.747978 1.48798 2.24366
A 0.00580745 2.24256 2.24288
A 1.49377 1.49559 1.48848
A 2.24382 2.23793 1.49749
A 2.24797 1.48776 2.24447
A 1.49752 2.24399 2.23519
A 2.98238 1.49055 1.49727
A 3.73618 2.24342 1.49781
A 3.73307 1.4923 2.24442
A 2.9906 2.23885 2.23308
A 4.48341 1.49493 1.50031
A 5.2358 2.23842 1.49088
A 5.23586 1.49984 2.23767
A 4.488 2.23608 2.23423
A -0.00752579 -0.00370094 2.98739
A 0.741637 0.748545 2.98172
A 0.742741 0.000600416 3.73778
A 0.00389245 0.751996 3.73784
A 1.49432 -0.0023943 2.98511
A 2.23601 0.752531 2.98389
A 2.24703 0.00440583 3.73456
A 1.4921 0.747014 3.72739
A 2.99515 -0.00456794 2.99085
A 3.73091 0.752838 2.98537
A 3.73464 0.00271809 3.73237
A 2.98147 0.746602 3.74039
A 4.47504 -0.00574178 2.98855
A 5.22689 0.746973 2.98008
A 5.22786 9.07156e-05 3.73122
A 4.47939 0.74356 3.7382
A -0.00674472 1.49236 2.98081
A 0.742557 2.24476 2.98833
A 0.747771 1.49334 3.74082
A 0.00597241 2.23887 3.74034
A 1.49598 1.48898 2.98407
A 2.23491 2.23549 2.98293
A 2.2414 1.49323 3.72776
A 1.49281 2.23574 3.74197
A 2.9825 1.48646 2.9927
A 3.73445 2.23658 2.98075
A 3.73286 1.50084 3.73251
A 2.98422 2.24493 3.73816
A 4.48849 1.49964 2.98543
A 5.22859 2.23729 2.98429
A 5.23591 1.49239 3.73412
A 4.48108 2.24624 3.72958
A -0.0020235 -0.00520808 4.4758
A 0.744878 0.745773 4.48525
A 0.740797 0.00109732 5.2236
A -0.00479551 0.746532 5.23573
A 1.49307 0.00187395 4.48129
A 2.2391 0.750973 4.47416
A 2.24538 0.0041962 5.22177
A 1.50136 0.739885 5.22446
A 2.98318 0.00104701 4.47942
A 3.74014 0.752432 4.48866
A 3.72909 -0.00446804 5.22942
A 2.98581 0.742095 5.22465
A 4.48737 -0.000857151 4.47968
A 5.2281 0.748119 4.48635
A 5.22934 -0.00585781 5.22251
A 4.48564 0.740818 5.22818
A -0.00679541 1.48869 4.48636
A 0.741024 2.24784 4.47646
A 0.751417 1.48652 5.23069
A 0.000762551 2.23525 5.23356
A 1.48771 1.49404 4.4753
A 2.23906 2.24692 4.48674
A 2.24066 1.4881 5.22943
A 1.49871 2.23597 5.22141
A 2.98363 1.49217 4.47697
A 3.73098 2.247 4.48466
A 3.74062 1.48793 5.22335
A 2.98272 2.23468 5.22992
A 4.47804 1.49533 4.47928
A 5.23561 2.24221 4.48682
A 5.23583 1.49389 5.23525
A 4.47587 2.24515 5.22544
A -0.00200904 2.99409 -0.000389288
A 0.753532 3.73608 0.0013605
A 0.747746 2.98547 0.748486
A -0.00696705 3.72872 0.748807
A 1.49425 2.9844 -0.00664533
A 2.23681 3.73122 -0.000973232
A 2.23762 2.99278 0.749703
A 1.49202 3.73759 0.749371
A 2.98631 2.99281 0.00122878
A 3.73005 3.73576 -0.000160024
A 3.73306 2.98648 0.750325
A 2.99375 3.73651 0.747896
A 4.47542 2.99221 -0.00330225
A 5.22171 3.72918 0.00293729
A 5.23476 2.99352 0.752769
A 4.47701 3.74062 0.739151
A -0.00334288 4.48018 -0.00699367
A 0.748628 5.22511 0.00483144
A 0.741932 4.47559 0.73977
A 0.00597766 5.22212 0.753264
A 1.48839 4.484 -0.00107995
A 2.23379 5.23423 -0.0024671
A 2.24657 4.4851 0.743067
A 1.48756 5.23396 0.747498
A 2.98178 4.48714 -0.00324613
A 3.72823 5.22895 0.000764393
A 3.73333 4.48621 0.754488
A 2.98181 5.22631 0.745458
A 4.48801 4.47517 -0.00541337
A 5.23123 5.22629 -0.00119703
A 5.23483 4.48555 0.746842
A 4.48504 5.22912 0.739934
A 0.00716681 2.99418 1.49123
A 0.742248 3.73402 1.49101
A 0.74035 2.99278 2.24045
A 0.00756364 3.73229 2.24
A 1.48973 2.98515 1.48974
A 2.23566 3.73722 1.49739
A 2.23727 2.99447 2.24404
A 1.494 3.73132 2.24057
A 2.9924 2.99389 1.48822
A 3.73589 3.73148 1.49358
A 3.73288 2.99474 2.24082
A 2.98676 3.72856 2.24818
A 4.47675 2.99096 1.49242
A 5.22173 3.73564 1.48912
A 5.22208 2.99004 2.23423
A 4.48472 3.73645 2.2366
A -0.00574108 4.4749 1.49411
A 0.749992 5.22868 1.49458
A 0.744409 4.47439 2.24472
A 0.00264513 5.22998 2.23589
A 1.49163 4.48742 1.49836
A 2.24086 5.23504 1.49789
A 2.23844 4.48781 2.24342
A 1.49295 5.22845 2.23484
A 2.98785 4.48487 1.48653
A 3.73171 5.22361 1.49607
A 3.73746 4.48165 2.24069
A 2.99396 5.22959 2.23463
A 4.47629 4.48111 1.49407
A 5.22233 5.22788 1.49975
A 5.23211 4.47786 2.2482
A 4.47781 5.22358 2.2381
A -0.00162643 2.99301 2.99295
A 0.750847 3.7388 2.9944
A 0.745393 2.98628 3.73763
A 0.00336937 3.73954 3.73772
A 1.4954 2.99386 2.99211
A 2.24528 3.7322 2.98945
A 2.23478 2.9911 3.73796
A 1.5004 3.73409 3.73798
A 2.98052 2.98555 2.98744
A 3.72999 3.73868 2.99418
A 3.73359 2.98204 3.74189
A 2.98903 3.72893 3.72895
A 4.4818 2.98864 2.99287
A 5.22369 3.72672 2.98114
A 5.22221 2.99314 3.72952
A 4.48131 3.73789 3.74101
A -0.0033132 4.48549 2.98357
A 0.739344 5.2237 2.98471
A 0.752858 4.47899 3.73299
A 0.00477893 5.23346 3.73103
A 1.50161 4.48813 2.98544
A 2.24846 5.23424 2.98393
A 2.24169 4.48637 3.73532
A 1.49563 5.23527 3.73888
A 2.99167 4.47794 2.98529
A 3.74217 5.23396 2.98712
A 3.7349 4.48608 3.7356
A 2.98657 5.22869 3.73421
A 4.47564 4.48456 2.98864
A 5.227 5.23524 2.98512
A 5.23285 4.47955 3.72839
A 4.47563 5.22548 3.7307
A 0.000706899 2.98764 4.48883
A 0.739827 3.73147 4.47609
A 0.744229 2.98826 5.23511
A 0.00451 3.73881 5.23018
A 1.49882 2.9814 4.47385
A 2.23395 3.73233 4.485
A 2.24781 2.992 5.22119
A 1.49727 3.73355 5.22825
A 2.99181 2.99216 4.47413
A 3.73938 3.72705 4.48001
A 3.73051 2.98439 5.23011
A 2.98411 3.733 5.22317
A 4.48319 2.99084 4.47485
A 5.22922 3.72825 4.48665
A 5.22121 2.98479 5.23176
A 4.48422 3.7408 5.23357
A 0.00245817 4.48725 4.48148
A 0.743285 5.22197 4.48614
A 0.752816 4.47761 5.23565
A 0.00481418 5.22445 5.22722
A 1.4917 4.48613 4.48443
A 2.24002 5.22929 4.48245
A 2.23792 4.4842 5.22266
A 1.49841 5.2254 5.2273
A 2.99539 4.48817 4.47993
A 3.73781 5.22921 4.47843
A 3.72715 4.48625 5.2261
A 2.98397 5.23436 5.22604
A 4.47969 4.47501 4.48892
A 5.22906 5.22745 4.48065
A 5.22826 4.47897 5.23361
A 4.4874 5.23529 5.23126
256
Atoms. Timestep: 2
A -0.000811997 -0.00555842 -0.0150184
A 0.752867 0.744268 -0.00365027
A 0.743647 -0.0147831 0.744599
A -0.00284792 0.736505 0.756411
A 1.48037 0.0139481 -0.0144774
A 2.23051 0.75228 -0.00355158
A 2.25254 0.000714053 0.756858
A 1.50426 0.734945 0.751331
A 3.00041 -0.00755701 -0.00790747
A 3.72611 0.738666 0.013538
A 3.72729 -0.00912316 0.758604
A 2.99765 0.744358 0.759199
A 4.49558 0.0082092 -0.0131171
A 5.2137 0.735322 0.0133723
A 5.24326 0.00527018 0.7423
A 4.49068 0.750813 0.746295
A 0.0117751 1.48553 -0.00934427
A 0.737583 2.22688 -0.0117307
A 0.756473 1.49584 0.757243
A -0.00138349 2.24339 0.757143
A 1.4845 1.48212 -0.0093756
A 2.25486 2.24055 -0.0077028
A 2.25544 1.48995 0.748261
A 1.49289 2.25523 0.761219
A 2.98007 1.49824 -0.000252977
A 3.73732 2.24782 0.01389
A 3.73509 1.49646 0.755354
A 2.98481 2.25193 0.751122
A 4.48543 1.49044 0.000605409
A 5.21646 2.24513 0.00591251
A 5.22795 1.50004 0.760495
A 4.49692 2.22693 0.749542
A 0.0107888 0.00766278 1.49104
A 0.740239 0.731307 1.48615
A 0.732514 -0.00266086 2.24114
A -0.00964088 0.738922 2.25141
A 1.4862 -0.012252 1.48908
A 2.25591 0.73853 1.47862
A 2.25012 -0.00914836 2.25465
A 1.49532 0.74948 2.22948
A 2.97674 -0.0127047 1.50546
A 3.73544 0.738488 1.50203
A 3.73409 0.00699019 2.24411
A 2.98312 0.743223 2.23984
A 4.47726 -0.0154741 1.50729
A 5.23374 0.753619 1.50548
A 5.23261 0.00365428 2.22867
A 4.48345 0.749271 2.24429
A 0.0040877 1.48634 1.5086
A 0.758725 2.23182 1.48482
A 0.749069 1.48225 2.24654
A 0.0115761 2.24448 2.245
A 1.49382 1.49728 1.48325
A 2.24692 2.23524 1.50114
A 2.25511 1.48179 2.24812
A 1.50115 2.24724 2.22977
A 2.97731 1.48735 1.5007
A 3.73785 2.24608 1.50176
A 3.73163 1.49081 2.24806
A 2.99354 2.23706 2.22558
A 4.48538 1.496 1.50676
A 5.24325 2.23626 1.48803
A 5.24332 1.5058 2.23465
A 4.49451 2.2316 2.22783
A -0.0149485 -0.00731529 2.98719
A 0.736423 0.750121 2.97594
A 0.738656 0.00121024 3.74096
A 0.00771441 0.757003 3.7411
A 1.49477 -0.00477496 2.98263
A 2.23141 0.757963 2.98023
A 2.25324 0.008764 3.73457
A 1.49036 0.747084 3.72035
A 3.00263 -0.00901145 2.99405
A 3.72739 0.75873 2.98323
A 3.73476 0.00546477 3.73035
A 2.9755 0.746306 3.74618
A 4.46879 -0.0113317 2.98943
A 5.22542 0.747018 2.9727
A 5.22739 0.000221731 3.72797
A 4.47741 0.740317 3.74179
A -0.0133526 1.49095 2.97415
A 0.738335 2.24876 2.98906
A 0.748577 1.49286 3.74699
A 0.0117918 2.23706 3.74607
A 1.49803 1.48428 2.98055
A 2.22918 2.23037 2.97831
A 2.24205 1.49272 3.72114
A 1.49183 2.23082 3.74925
A 2.97748 1.47927 2.99775
A 3.73435 2.23255 2.97393
A 3.73124 1.50781 3.73055
A 2.98082 2.24912 3.74173
A 4.4955 1.50536 2.98331
A 5.22895 2.23401 2.98103
A 5.24338 1.49101 3.73376
A 4.48081 2.25167 3.72476
A -0.00405486 -0.0103238 4.47028
A 0.74286 0.744643 4.48908
A 0.734766 0.00214028 5.21893
A -0.0095628 0.7461 5.24306
A 1.49232 0.00371858 4.48116
A 2.23745 0.755037 4.46698
A 2.24997 0.00834828 5.21531
A 1.50882 0.732965 5.22058
A 2.97888 0.00208875 4.47741
A 3.74569 0.757828 4.49578
A 3.7238 -0.00886983 5.23047
A 2.98406 0.73739 5.22105
A 4.49323 -0.0017292 4.47796
A 5.2279 0.749314 4.49123
A 5.23046 -0.0116517 5.21678
A 4.48984 0.734812 5.22807
A -0.0134421 1.48363 4.49134
A 0.735201 2.25484 4.4717
A 0.755894 1.4793 5.23294
A 0.00152669 2.22988 5.23877
A 1.48172 1.49423 4.46929
A 2.23751 2.25299 4.49197
A 2.24059 1.48243 5.23047
A 1.50352 2.23129 5.21459
A 2.9797 1.4906 4.47259
A 3.72748 2.25318 4.4879
A 3.74663 1.48216 5.21855
A 2.97796 2.22873 5.23149
A 4.47481 1.49692 4.47715
A 5.24279 2.2437 4.49214
A 5.24314 1.49399 5.24216
A 4.4704 2.2495 5.22261
A -0.00399432 3.00047 -0.000768971
A 0.76007 3.73758 0.00274652
A 0.748573 2.98337 0.749943
A -0.0138131 3.72306 0.750616
A 1.49471 2.98117 -0.013217
A 2.23297 3.72804 -0.00192765
A 2.23457 2.99793 0.752476
A 1.49027 3.74067 0.751823
A 2.98501 2.99796 0.00245084
A 3.72558 3.73708 -0.00035432
A 3.7317 2.98536 0.753674
A 2.99978 3.73854 0.748852
A 4.46948 2.99674 -0.00648421
A 5.21524 3.7239 0.00585021
A 5.24103 2.99932 0.75857
A 4.47264 3.74668 0.731507
A -0.00664329 4.47893 -0.0138613
A 0.750309 5.22198 0.00954041
A 0.736987 4.46982 0.73278
A 0.0118539 5.21601 0.759569
A 1.48315 4.48657 -0.00209876
A 2.22692 5.24017 -0.0049117
A 2.25226 4.48876 0.739282
A 1.48145 5.2395 0.748061
A 2.97599 4.49279 -0.00650183
A 3.72212 5.22953 0.00153092
A 3.73218 4.49099 0.761885
A 2.97607 5.22439 0.744018
A 4.49444 4.4691 -0.0107384
A 5.23419 5.22433 -0.00236229
A 5.24125 4.48964 0.746772
A 4.48864 5.22993 0.733011
A 0.0142296 3.00064 1.48874
A 0.737718 3.73361 1.48821
A 0.733953 2.99788 2.24024
A 0.0149588 3.73009 2.23935
A 1.4857 2.98279 1.48578
A 2.23071 3.73998 1.50095
A 2.23389 3.0012 2.24727
A 1.49416 3.72821 2.24045
A 2.99707 3.00012 1.48276
A 3.73725 3.72855 1.49339
A 3.73132 3.00177 2.24101
A 2.98592 3.72277 2.25549
A 4.47217 2.99425 1.49099
A 5.2152 3.7368 1.48451
A 5.21598 2.99242 2.22778
A 4.48792 3.73841 2.23259
A -0.0114018 4.46848 1.49446
A 0.75298 5.22895 1.49537
A 0.741969 4.46746 2.24867
A 0.00522501 5.2316 2.23107
A 1.48948 4.49335 1.50281
A 2.24097 5.24164 1.5019
A 2.23628 4.49414 2.24609
A 1.49206 5.22864 2.22912
A 2.98804 4.48822 1.47944
A 3.72897 5.21901 1.49828
A 3.74032 4.48182 2.24067
A 3.00029 5.23078 2.22869
A 4.47129 4.48082 1.49429
A 5.21645 5.22744 1.50561
A 5.23585 4.47436 2.25559
A 4.47427 5.2189 2.23555
A -0.00326423 2.99836 2.99825
A 0.754781 3.74307 3.00116
A 0.743921 2.98501 3.74069
A 0.0066336 3.74452 3.74088
A 1.49694 2.99998 2.99658
A 2.24976 3.73001 2.9913
A 2.22895 2.99449 3.74134
A 1.50691 3.73376 3.74143
A 2.97354 2.9834 2.9873
A 3.72561 3.74275 3.0007
A 3.73269 2.97652 3.74907
A 2.99041 3.72348 3.72353
A 4.48208 2.98967 2.998
A 5.21913 3.71906 2.97476
A 5.21629 2.99859 3.72464
A 4.48122 3.7413 3.74739
A -0.00660363 4.48948 2.9796
A 0.731941 5.21917 2.98186
A 0.758788 4.47665 3.73149
A 0.0094832 5.23849 3.72758
A 1.50936 4.49481 2.98332
A 2.25615 5.2401 2.98032
A 2.2427 4.49128 3.73614
A 1.49743 5.24219 3.74317
A 2.9957 4.47461 2.98299
A 3.74966 5.2395 2.98661
A 3.73526 4.49068 3.73671
A 2.98559 5.22907 3.7339
A 4.46999 4.48763 2.98967
A 5.22566 5.24209 2.98262
A 5.23731 4.47772 3.72236
A 4.47 5.22265 3.72702
A 0.00133622 2.98768 4.4962
A 0.732928 3.72847 4.47089
A 0.74164 2.98889 5.24179
A 0.00893909 3.74307 5.23205
A 1.50368 2.9753 4.46647
A 2.22735 3.73029 4.48849
A 2.25484 2.99632 5.21417
A 1.50065 3.73257 5.22814
A 2.99591 2.99667 4.46697
A 3.74417 3.71972 4.47869
A 3.72654 2.98124 5.2319
A 2.98067 3.73158 5.21807
A 4.48498 2.99401 4.46843
A 5.23018 3.72211 4.49186
A 5.21421 2.98201 5.23519
A 4.48691 3.74696 5.23874
A 0.00486007 4.493 4.48156
A 0.739763 5.21571 4.49082
A 0.758672 4.47383 5.24288
A 0.00957346 5.22061 5.22617
A 1.48958 4.49076 4.48738
A 2.23936 5.2303 4.48344
A 2.23521 4.48694 5.2171
A 1.5029 5.22263 5.2263
A 3.00304 4.49478 4.47844
A 3.74112 5.23018 4.4755
A 3.71989 4.49105 5.22394
A 2.98033 5.24034 5.22377
A 4.47804 4.46875 4.49637
A 5.22979 5.2265 4.47983
A 5.22826 4.47658 5.23879
A 4.49328 5.24214 5.23418
256
Atoms. Timestep: 3
A -0.00116847 -0.008361 -0.0222357
A 0.755689 0.742885 -0.005264
A 0.741971 -0.0218531 0.743314
A -0.00415257 0.731627 0.760831
A 1.4739 0.0205972 -0.0215409
A 2.22577 0.754715 -0.00514584
A 2.25829 0.00100784 0.761422
A 1.5093 0.729087 0.753501
A 3.00636 -0.0111163 -0.0115922
A 3.72209 0.734703 0.0200956
A 3.72389 -0.0136591 0.764375
A 3.00262 0.743039 0.765079
A 4.50227 0.0120612 -0.0193382
A 5.20685 0.729845 0.0198311
A 5.25052 0.00759301 0.740267
A 4.49507 0.752601 0.746287
A 0.0174037 1.48139 -0.0134727
A 0.733183 2.2202 -0.0172843
A 0.761054 1.49667 0.762143
A -0.00194967 2.24462 0.761972
A 1.48011 1.47657 -0.0137457
A 2.26152 2.24054 -0.0113536
A 2.26249 1.48817 0.748826
A 1.49268 2.26215 0.767799
A 2.97665 1.50025 -0.000358882
A 3.73865 2.25116 0.0206398
A 3.73536 1.49777 0.759584
A 2.98343 2.25739 0.753253
A 4.48729 1.48877 0.000818893
A 5.21078 2.24735 0.00885053
A 5.22803 1.5029 0.767035
A 4.5044 2.22043 0.75095
A 0.015885 0.0111955 1.4897
A 0.737136 0.72378 1.48247
A 0.725616 -0.00392595 2.24145
A -0.0142556 0.735003 2.25652
A 1.48258 -0.018048 1.48692
A 2.26315 0.734384 1.47145
A 2.25462 -0.0134203 2.26143
A 1.49611 0.750546 2.22379
A 2.97166 -0.0188518 1.51114
A 3.73596 0.734407 1.50605
A 3.73389 0.0104009 2.24576
A 2.98096 0.741285 2.23947
A 4.47526 -0.0229218 1.5137
A 5.23628 0.756824 1.51113
A 5.23459 0.00533147 2.22282
A 4.48447 0.75044 2.24608
A 0.00630377 1.48267 1.51578
A 0.764291 2.22751 1.4807
A 0.75018 1.4767 2.24927
A 0.017266 2.24652 2.24698
A 1.49405 1.49877 1.47821
A 2.24998 2.23271 1.50472
A 2.26199 1.47597 2.25153
A 1.5046 2.2504 2.22453
A 2.97254 1.48422 1.50402
A 3.73951 2.24863 1.5056
A 3.7302 1.4893 2.25157
A 2.99636 2.23541 2.21833
A 4.48725 1.49695 1.51306
A 5.25062 2.23432 1.48533
A 5.25061 1.51161 2.23166
A 4.50084 2.22737 2.22159
A -0.0221591 -0.0107533 2.98701
A 0.731309 0.751558 2.97037
A 0.734725 0.00184549 3.74398
A 0.0114058 0.761835 3.74421
A 1.4951 -0.0071294 2.98017
A 2.22694 0.762992 2.97666
A 2.2592 0.0130171 3.73447
A 1.48857 0.747067 3.71343
A 3.00997 -0.0132147 2.99718
A 3.724 0.76452 2.98125
A 3.73482 0.00826313 3.72854
A 2.96986 0.746021 3.75177
A 4.46279 -0.0166026 2.99021
A 5.22386 0.747012 2.96561
A 5.22689 0.00043099 3.72479
A 4.47551 0.737261 3.74519
A -0.0196874 1.48962 2.96774
A 0.734344 2.25262 2.98979
A 0.749254 1.49237 3.75288
A 0.0173022 2.2353 3.75159
A 1.49984 1.47982 2.97707
A 2.22358 2.22545 2.97379
A 2.24256 1.49234 3.71475
A 1.49089 2.22598 3.75615
A 2.97264 1.47236 3.00269
A 3.73419 2.22871 2.96721
A 3.72965 1.51464 3.72863
A 2.97737 2.25319 3.74511
A 4.50238 1.51087 2.98129
A 5.22943 2.23101 2.97788
A 5.25058 1.48968 3.73344
A 4.48063 2.25686 3.72013
A -0.0061034 -0.0152599 4.46492
A 0.74085 0.74351 4.49287
A 0.728878 0.00308275 5.21431
A -0.0142729 0.74554 5.2502
A 1.49157 0.00550608 4.48098
A 2.23568 0.759082 4.45993
A 2.25441 0.0124055 5.20902
A 1.51606 0.726249 5.21661
A 2.97485 0.0031137 4.47537
A 3.75105 0.762941 4.50262
A 3.71876 -0.0131392 5.23137
A 2.98239 0.73289 5.21755
A 4.49889 -0.00263213 4.47622
A 5.22771 0.750461 4.49597
A 5.23176 -0.0173123 5.21115
A 4.49396 0.728966 5.22799
A -0.0197929 1.4787 4.49632
A 0.729508 2.2616 4.46736
A 0.760292 1.47221 5.2349
A 0.00229116 2.22469 5.24389
A 1.47595 1.49433 4.46349
A 2.23614 2.25875 4.49701
A 2.24047 1.47684 5.23135
A 1.50815 2.22672 5.20793
A 2.97586 1.48915 4.46836
A 3.72402 2.2591 4.49111
A 3.75242 1.47657 5.21406
A 2.97345 2.22289 5.23297
A 4.47186 1.49864 4.475
A 5.24972 2.24516 4.4973
A 5.25006 1.49409 5.24901
A 4.46506 2.25368 5.21983
A -0.00593485 3.00664 -0.0011335
A 0.766426 3.73891 0.00417241
A 0.749358 2.98133 0.751146
A -0.0204043 3.7177 0.752235
A 1.49521 2.97785 -0.0196458
A 2.22919 3.72503 -0.00284478
A 2.2316 3.00299 0.755194
A 1.4886 3.74376 0.754243
A 2.98372 3.003 0.00366178
A 3.72111 3.73854 -0.000622795
A 3.73051 2.98425 0.75687
A 3.00559 3.74063 0.749731
A 4.46359 3.00113 -0.00944232
A 5.20904 3.71872 0.00871706
A 5.24693 3.00484 0.764239
A 4.46831 3.75262 0.724087
A -0.00985129 4.47761 -0.0204696
A 0.751888 5.21898 0.0140048
A 0.73208 4.46413 0.726068
A 0.0175334 5.21005 0.765765
A 1.47827 4.48908 -0.00298734
A 2.2201 5.24612 -0.00730534
A 2.25759 4.49233 0.735585
A 1.47563 5.24483 0.748552
A 2.97026 4.49827 -0.00978554
A 3.7163 5.23 0.0023044
A 3.7311 4.49572 0.768902
A 2.97045 5.22262 0.74258
A 4.50055 4.4634 -0.0158753
A 5.2372 5.22245 -0.0034674
A 5.24745 4.49365 0.746676
A 4.49217 5.23076 0.726175
A 0.0210761 3.00681 1.48643
A 0.733439 3.73334 1.4854
A 0.72787 3.0028 2.24011
A 0.0220068 3.72793 2.23878
A 1.48176 2.98062 1.48206
A 2.22591 3.74279 1.50442
A 2.2306 3.00766 2.25031
A 1.49422 3.72524 2.24035
A 3.00147 3.00624 1.47754
A 3.73855 3.72585 1.49324
A 3.72989 3.00862 2.24134
A 2.98508 3.71727 2.2625
A 4.46773 2.99739 1.48947
A 5.20875 3.73802 1.48004
A 5.21014 2.99465 2.22139
A 4.49093 3.74036 2.22876
A -0.016909 4.46219 1.49489
A 0.755759 5.22902 1.49618
A 0.739639 4.46069 2.25249
A 0.00767011 5.23312 2.22622
A 1.48735 4.4991 1.50704
A 2.24102 5.24798 1.50578
A 2.23433 4.50029 2.24865
A 1.49108 5.22891 2.22368
A 2.9881 4.49137 1.47271
A 3.72633 5.21461 1.50038
A 3.743 4.48185 2.24065
A 3.00656 5.23182 2.22303
A 4.46651 4.48055 1.49444
A 5.21078 5.22695 1.51129
A 5.23944 4.47094 2.26278
A 4.47087 5.2143 2.23313
A -0.0049127 3.00359 3.00348
A 0.758691 3.74724 3.00784
A 0.742517 2.98386 3.7436
A 0.00968862 3.74941 3.74392
A 1.49834 3.00586 3.00099
A 2.25406 3.72805 2.99315
A 2.22336 2.99766 3.74456
A 1.51323 3.73361 3.74483
A 2.96677 2.98104 2.98721
A 3.7215 3.74659 3.00711
A 3.73184 2.97111 3.7558
A 2.99171 3.71827 3.71839
A 4.48215 2.99069 3.00286
A 5.21469 3.71169 2.96854
A 5.21071 3.00385 3.71996
A 4.48113 3.74477 3.75352
A -0.00983996 4.49332 2.97579
A 0.724845 5.21478 2.97905
A 0.764671 4.4745 3.73
A 0.0140342 5.24325 3.7242
A 1.51698 4.50141 2.98131
A 2.26372 5.24579 2.97687
A 2.24375 4.49606 3.73697
A 1.49916 5.24902 3.74729
A 2.99963 4.47153 2.98074
A 3.75676 5.24479 2.98606
A 3.73557 4.49512 3.73783
A 2.9847 5.22945 3.73357
A 4.46455 4.49053 2.99066
A 5.22426 5.24872 2.98011
A 5.24163 4.47596 3.71646
A 4.46468 5.21986 3.72357
A 0.00181639 2.98776 4.50347
A 0.72637 3.72555 4.46594
A 0.739198 2.98948 5.24826
A 0.0132189 3.74721 5.23388
A 1.50818 2.96944 4.45945
A 2.22101 3.72848 4.49178
A 2.26171 3.00046 5.20736
A 1.50386 3.73154 5.22792
A 2.99979 3.00109 4.46005
A 3.7488 3.71266 4.47748
A 3.72257 2.97825 5.23365
A 2.97736 3.73034 5.21303
A 4.48679 2.99703 4.4623
A 5.23125 3.7162 4.497
A 5.20739 2.9793 5.2386
A 4.48936 3.75283 5.24372
A 0.00714494 4.49856 4.48163
A 0.736436 5.20964 4.49538
A 0.764402 4.4701 5.24985
A 0.014219 5.2168 5.22517
A 1.48746 4.4952 4.4902
A 2.23873 5.23134 4.48434
A 2.23264 4.48959 5.21169
A 1.50718 5.22012 5.22533
A 3.01045 4.50112 4.47691
A 3.74444 5.23128 4.47268
A 3.71282 4.49578 5.2219
A 2.9767 5.24615 5.22147
A 4.47651 4.46273 4.50367
A 5.23045 5.22539 4.4789
A 5.22835 4.47426 5.2437
A 4.49891 5.24871 5.23703
256
Atoms. Timestep: 4
A -0.00147122 -0.0111925 -0.02911
A 0.758299 0.74143 -0.0066361
A 0.740224 -0.0285253 0.741876
A -0.00531669 0.727142 0.764855
A 1.4677 0.026835 -0.0283977
A 2.22142 0.75686 -0.00652993
A 2.26382 0.00121415 0.765504
A 1.5141 0.723366 0.75562
A 3.01179 -0.0144191 -0.0149486
A 3.71829 0.730919 0.0264142
A 3.72071 -0.0181729 0.770061
A 3.00752 0.741672 0.770657
A 4.5085 0.0155818 -0.0251596
A 5.20057 0.724778 0.0259942
A 5.25752 0.00952255 0.738541
A 4.49916 0.754209 0.746634
A 0.0227527 1.47724 -0.0169617
A 0.729103 2.2138 -0.0224666
A 0.765391 1.49729 0.766707
A -0.00235281 2.24573 0.766459
A 1.47603 1.47135 -0.0177608
A 2.26767 2.24064 -0.0147681
A 2.26916 1.48655 0.749268
A 1.49277 2.26867 0.773697
A 2.97363 1.502 -0.00043383
A 3.73989 2.25426 0.0271752
A 3.7356 1.49908 0.76382
A 2.98207 2.26265 0.7554
A 4.48899 1.48711 0.000933194
A 5.20539 2.24959 0.011751
A 5.22841 1.50542 0.773276
A 4.51152 2.21436 0.752474
A 0.0206097 0.0143522 1.48842
A 0.734331 0.716586 1.47896
A 0.71907 -0.00511201 2.24187
A -0.0186186 0.731171 2.26136
A 1.47917 -0.0234404 1.48499
A 2.26993 0.730305 1.46479
A 2.2589 -0.0173225 2.26797
A 1.49693 0.751359 2.21799
A 2.96702 -0.0247239 1.51661
A 3.73655 0.730475 1.50996
A 3.7337 0.0137118 2.24735
A 2.9789 0.739222 2.23918
A 4.4733 -0.0300324 1.51974
A 5.23862 0.759862 1.51655
A 5.23637 0.00682907 2.21718
A 4.48546 0.751587 2.24787
A 0.00873606 1.47906 1.52269
A 0.76943 2.22338 1.47704
A 0.751316 1.47143 2.25177
A 0.0228363 2.24872 2.24876
A 1.49455 1.49999 1.47344
A 2.25299 2.23039 1.50819
A 2.2685 1.47041 2.25459
A 1.50778 2.25345 2.21954
A 2.9682 1.4812 1.50719
A 3.74116 2.25103 1.5093
A 3.72878 1.4878 2.25486
A 2.99902 2.23396 2.21145
A 4.48899 1.49771 1.51915
A 5.25787 2.23271 1.48286
A 5.25761 1.5172 2.22869
A 4.50692 2.22354 2.21558
A -0.0290443 -0.0139237 2.98685
A 0.726347 0.752787 2.96513
A 0.731029 0.00252797 3.74676
A 0.0149163 0.766406 3.74709
A 1.49526 -0.00944635 2.97774
A 2.22269 0.767403 2.97325
A 2.26478 0.0170989 3.73418
A 1.48669 0.746923 3.7067
A 3.01712 -0.0170701 3.00017
A 3.72082 0.770146 2.97952
A 3.73481 0.01113 3.72704
A 2.96472 0.74576 3.75705
A 4.4572 -0.0213725 2.99082
A 5.22215 0.746936 2.95892
A 5.22632 0.000753161 3.72172
A 4.47371 0.734476 3.74831
A -0.0256143 1.48839 2.9617
A 0.730682 2.2563 2.99054
A 0.74973 1.49186 3.75835
A 0.0223447 2.23361 3.75677
A 1.5013 1.4757 2.97364
A 2.21816 2.2208 2.9694
A 2.24287 1.49214 3.70873
A 1.49001 2.22126 3.76249
A 2.96808 1.46586 3.00747
A 3.73393 2.22516 2.96062
A 3.72813 1.5213 3.72679
A 2.97383 2.25709 3.74825
A 4.50904 1.51607 2.97941
A 5.23009 2.22843 2.97488
A 5.2574 1.48842 3.73316
A 4.48057 2.2617 3.71579
A -0.00817936 -0.0199356 4.4598
A 0.738848 0.742375 4.49658
A 0.723198 0.00388575 5.20977
A -0.0188963 0.744793 5.25705
A 1.49081 0.00721028 4.48073
A 2.23373 0.763098 4.45307
A 2.25861 0.0163112 5.20298
A 1.52297 0.719855 5.21251
A 2.97119 0.00410534 4.47329
A 3.75613 0.767611 4.50904
A 3.71411 -0.017211 5.23204
A 2.98084 0.728699 5.2142
A 4.50425 -0.00358196 4.47446
A 5.2275 0.751536 4.50051
A 5.23332 -0.0227658 5.20569
A 4.49797 0.723362 5.22794
A -0.0257053 1.47396 4.50134
A 0.724042 2.26799 4.46363
A 0.764566 1.46529 5.23645
A 0.00305005 2.21977 5.24886
A 1.47048 1.49426 4.45805